 variables= "x","y","f"
 zone i=          19  datapacking=point
  0.000000000000000E+000  0.000000000000000E+000   1.00000000000000     
  -1.02890842814359       0.500830206116104       0.432997257673454     
   1.24131146302264       -1.49409406354187       0.209504321996973     
   1.45860120069626       0.761074127149235       0.269778013642784     
  0.815643339891563        1.89917080814725       0.189676880668842     
  0.728139943183449       -1.26780631928227       0.318723002879526     
  -1.73092210515877       -1.70501861413885       0.144860778324441     
  0.392178648526116        1.22583645379133       0.376438120129847     
 -0.863980469602582       0.528015773253923       0.493763054526991     
  -1.34080516820320      -0.375741025076674       0.340258753926683     
  0.245432770231674       7.848640676135599E-002  0.937736754427814     
 -0.695641118231816      -0.247382451506812       0.647201167066872     
 -0.482379348734390      -0.704230835353726       0.578492491827076     
  -1.45497729781014      -0.849755024301074       0.260481614876585     
   1.14392423598663       -1.83269334156021       0.176450009746367     
 -0.170628756322814        1.50195591441526       0.304415324370554     
   1.71617682175985       -1.04799893582114       0.198272465764791     
  -1.90036708681015        1.01872785686472       0.177016167339004     
 -0.101206877120125        1.75909038856221       0.243626616431107     
