 variables= "x","y","f"
 zone i=         131  datapacking=point
  0.000000000000000E+000  0.000000000000000E+000   1.00000000000000     
  -1.62881718186166      -0.102324122802845        766.116807067807     
  -1.69831447599356       -1.62412736322767        2039.84743637859     
 -0.579031587635574       -1.83836475138019        474.965439005384     
 -0.394580399453867       0.313547225237938        4.43662829769197     
  -1.11735375817319      -0.654533496751347        366.629003413469     
 -0.708125042675420        1.88147430032470        193.366861167736     
   1.32103371678016       -1.42021306548870        1002.04278606731     
 -0.500825871975270       -1.03244202357085        166.930302526273     
  0.237890324978455        1.94538314583914        357.334083430529     
   1.24559268414036        1.06216571188914        24.0052313764707     
  0.935784339650702       0.460341102500665        17.2557878974246     
   1.13197666599305       -1.36770094274753        701.775724940547     
   1.10129100952359       -1.20928672327462        586.680960658196     
   1.85601234544456      -0.970507670583008        1950.21089139002     
  -1.02341086901053      -0.879671377625907        375.442964195619     
 -0.435941082273309        1.80590435169481        263.162191711803     
   1.41303939883731      -0.165561047829559        467.699384622425     
  -1.42850310963080      -0.599798044861507        703.078971482209     
  -1.49298491956657        1.14845850913152        122.972823121033     
 -0.780749245883385       -1.33875305409506        382.767100524378     
   1.48940919597365      -0.727923669282352        868.286336738979     
   1.96600559168682       0.779256801611741        953.224122764440     
  0.701781031077437      -0.557652868156868        110.370328372729     
  -1.22727937071788        1.63511512293508        6.62230648981610     
  0.718669788059278       -1.97890745473596        622.778127973172     
 -0.950459872986265      -0.993774934595810        363.721690396634     
  -1.76839824716840      -0.421127252655689        1266.74962334500     
   1.18714840621063       3.792875714625765E-002   188.106785709074     
  0.861278459580839       9.457557572392616E-002   41.9092649209847     
   1.36966561415604       0.127121055535518        305.988775652862     
  -1.31246561786745       -1.88863333704855        1309.42356104014     
  -1.90734940797104       0.915076761718578        749.873845772590     
  -1.67646160042797       0.214218186306379        681.243573700582     
  0.198431241516357        1.61696566222454        249.521755603286     
  0.774334207728307      -0.177198949197183        60.3915705653477     
   1.92968580147547      -0.594952878634473        1865.92960839059     
  -1.81653610952472      -0.716542659554467        1621.03647255354     
  0.592111035012541       0.517902548352513        2.96553899399288     
 -2.342230632318443E-002 -0.283625552015744        9.12288833644365     
 -0.223587850092286        1.34962208626807        170.401126360904     
  -1.56618733594345       0.686190185981148        318.726787205514     
 -0.742616264644939       -1.09467395948750        274.018640563001     
  -1.05995682920298       -1.69668747045572        799.593941907408     
  -1.96160396563546       -1.96677393931073        3389.80290798362     
  -1.28853745105518       -1.24898730610095        851.649402524988     
  0.619762413796732       -1.40904293545851        321.682693689671     
   1.78200320708620        1.91004024702014        160.759334846989     
   1.15080228435355      -0.304713369148639        265.406150810828     
 -0.817151902888246      -0.523702137310012        145.254818206212     
   1.57834985663374       0.703063736256892        320.073423351091     
  0.303139685082688      -0.493280899400902        34.7285418104410     
   1.61677879937389        1.48899248067822        126.938687343680     
  0.132578799099335       -1.12933143244706        132.292346429526     
  -1.51911588108915       0.761729379950873        245.352498774988     
 -0.605040925951529      -0.240265352046334        39.3409606690825     
  0.634409459609873       -1.92603136762046        542.328015638068     
  0.962535762235472        1.70988838385197        61.3750419062382     
  -1.83701662688965       -1.53952037274224        2422.93613790070     
   1.90277324888092       0.609339598188137        907.551421046443     
 -0.364815196555738       0.651542790898712        28.7420369249619     
  0.215113640080130       0.372816428352023        11.2790503073288     
  0.666857238465097       0.246322018705803        4.04630996752452     
 -0.191461810213640      -0.340640756517634        15.6549880974459     
 -0.555132804050541       0.408057125836468        3.41613328181121     
 -0.468182706961592       -1.50907688277839        300.847946820847     
 -0.685687196660832        1.03643419912629        34.9074031448407     
  0.907194119518192       -1.81072061586846        693.657657724522     
   1.01309346552116       -1.05620005610497        433.705131203636     
 -0.235834891108947       -1.66121316052683        296.278244170259     
 -0.318236221082040        1.39499118089740        169.108085490692     
  -1.32899215122351       0.975555973545492        67.9391865378797     
   1.46097548162817       -1.78495108202501        1536.38247925773     
   1.33247698599093      -3.924780688511187E-002   329.439656769503     
   1.04757378230051      -4.302526002075924E-003   121.379495003828     
 -0.328204212188917      -0.801104125485252        84.3598928968112     
  0.268752326097815       0.148306487971541        1.11351964243191     
  -1.15599114371665       -1.55026123279370        837.880835300770     
  -1.20116769549240       0.881597860671212        36.3403535271423     
   1.56232812314757       0.343488585952702        440.216741993572     
  0.491513850928510        1.77602290598988        235.708261239094     
 -0.531287581025858       0.823087860075180        31.5936166829379     
  2.367150264904527E-002  -1.47683952088861        219.224252241237     
 -0.107253443323538        1.56733273407282        243.286532636726     
  -1.87579748446733      -0.922707881220404        1980.80617304299     
 -0.757329074216333        1.30054873323455        55.9413099921884     
   1.28017332911573      -5.911991364884361E-002   288.386558277423     
  -1.10395677702933       -1.59785432969752        797.736048172897     
  0.393868324686012       0.587471618120222        19.0591279086908     
  0.783100947540480       0.719455232261575        1.17506206143270     
  0.417319973307204       0.861187858615442        47.5407989683772     
  0.370073821446107        1.09884358559219        92.9198426408093     
 -0.963176068261954        1.57712016034464        46.0276576901955     
  -1.01620978711053       6.311506913793963E-002   98.0711695144041     
  -1.63636524320095       -1.14869710543143        1471.07517509676     
   1.63989189736635        1.84774903786734        71.2210802870838     
   1.81579079751775       0.553193940639541        753.565486685419     
   1.53791863982813       -1.27859995986847        1328.01261117328     
  -1.97241275163494      -0.452426255778650        1894.85970370810     
 -0.142643421494004      -0.660905280743983        47.7161208416540     
  -1.37745067613236       -1.85032061652658        1410.17104115204     
  0.820074040262369       0.287352260753961        14.8679023612499     
 -0.893467896110174      -0.119408445340040        87.8013248641651     
  -1.91951006989949      -0.210717913324552        1525.81052881560     
  -1.75536310409700      -0.833679153190447        1540.29791094578     
  8.559188483138991E-002  0.171266226625406        3.52378295076868     
  0.558075544953132        1.00582204118415        48.4107845417251     
   1.74362297962605      -0.950480523663827        1593.12291612030     
 -0.852245530788649       -1.74906197123182        616.183614194508     
  0.889516722888096        1.98873195547752        143.410904826589     
 -0.915339166007547       0.953853590352148        5.01430512230322     
   1.05494226883619      -0.857516091752468        388.258233470578     
 -0.638722783359580        1.25376348479697        74.2226165799536     
   1.23045490046134        1.74334701307811        5.31223119942103     
  0.163909021932342        1.19660759847484        137.528549664341     
  -1.57801492450052        1.42970911207668        119.095640610870     
  0.471102873259023       0.479825307411632        6.93032277405735     
   1.42904432466676        1.82852182577614        4.74853421480671     
 -6.730249317572889E-002  0.424341097123639        18.7633017752587     
  5.310407376488469E-002  -1.32055467804790        176.028677033457     
   1.71100746755602      -0.760947226617608        1361.00416860834     
 -0.105126359307319        1.14164164285265        129.044699754331     
   1.99624095549704       -1.19226733004487        2681.37936750503     
   1.69196807011292        1.37977784130708        220.401226979829     
  -1.47432497682361        1.52923230179218        47.6476566497048     
  0.348358806291009        1.47141837430493        182.692056085373     
 -3.771650038520313E-003  -1.68817693142678        286.006495705332     
  0.518274759353627        1.22252725631335        91.2281154200698     
  -1.41718823306210        1.67208542271299        17.1550610979107     
 -0.270419331828107        1.27405068925546        145.835828484984     
  -1.24305352900347      -0.404111478943587        385.005825455955     
