 variables= "x","y","fpcb"
 zone i=          19  datapacking=point
  0.000000000000000E+000  0.000000000000000E+000  0.000000000000000E+000
  -1.02890842814359       0.500830206116104       0.000000000000000E+000
   1.24131146302264       -1.49409406354187       0.000000000000000E+000
   1.45860120069626       0.761074127149235       0.000000000000000E+000
  0.815643339891563        1.89917080814725       0.000000000000000E+000
  0.728139943183449       -1.26780631928227       0.000000000000000E+000
  -1.73092210515877       -1.70501861413885       0.000000000000000E+000
  0.392178648526116        1.22583645379133       0.000000000000000E+000
 -0.863980469602582       0.528015773253923       0.000000000000000E+000
  -1.34080516820320      -0.375741025076674       0.000000000000000E+000
  0.245432770231674       7.848640676135599E-002  0.000000000000000E+000
 -0.695641118231816      -0.247382451506812       0.000000000000000E+000
 -0.482379348734390      -0.704230835353726       0.000000000000000E+000
  -1.45497729781014      -0.849755024301074       0.000000000000000E+000
   1.14392423598663       -1.83269334156021       0.000000000000000E+000
 -0.170628756322814        1.50195591441526       0.000000000000000E+000
   1.71617682175985       -1.04799893582114       0.000000000000000E+000
  -1.90036708681015        1.01872785686472       0.000000000000000E+000
 -0.101206877120125        1.75909038856221       0.000000000000000E+000
