 variables= "x","y","f"
 zone i=         131  datapacking=point
  0.000000000000000E+000  0.000000000000000E+000   1.00000000000000     
   1.05703404378152       -1.74248658041883        817.853175261320     
   1.84598299956003      -0.597911285992708        1605.17040015043     
  -1.70876453668338       -1.15605235684796        1668.65679946465     
  -1.03762909176441       -1.95516763314128        923.358381247088     
  0.140373813558373       -1.47950942947948        225.503290026482     
  -1.68388040728763       0.663644693908570        478.878444067623     
   1.73955197820592       0.746599535320485        520.132314914358     
  -1.42623815821013        1.71671076783868        15.9637336802935     
 -0.952663947532846      -6.655239660372358E-002   98.7040674960863     
 -0.766477626793133      -0.439259481095897        108.541472419752     
 -0.632221593006754      -0.160816332891145        34.0824676803338     
  0.724968799769754       -1.31338933790698        338.256376702021     
   1.43611392002684       0.582955062496365        219.072789764293     
 -0.454720140263623      -0.686478348022088        81.9055443357884     
 -9.971800493136596E-002   1.83932082378702        335.871452925728     
  0.986056010369686      -0.886059629675044        345.352645119761     
  -1.89098484022890      -0.340073798017854        1541.78308819742     
  4.985135697166188E-002  -1.17757518464616        140.157023623356     
   1.02732914539934       3.585641008748963E-002   103.948714875166     
  0.122473448123258        1.78372252664000        313.608080503308     
 -0.306314630470671      -0.273204660377402        15.1778032149442     
  4.481485242689498E-002  0.707288319139599        50.6543591911996     
 -0.659370654812823        1.28790956820357        75.5382811939355     
   1.89633588313056       0.491532663146872        964.630908219338     
  0.297340463466017      -0.184576275859347        7.94595487780601     
 -0.614097695778568       0.208211033587732        5.45819946243803     
 -0.712492023841413      -0.566624131212421        118.338020644352     
 -0.502299659963042       0.931432845255857        48.3783742972484     
  -1.81450713491186       8.801342140768131E-002   1034.75394805134     
  0.250339263561280        1.31790948712625        158.124671769003     
   1.77261338038143       -1.49830328637035        2153.98520865701     
   1.41232072690897      -0.761959968981000        760.059769884302     
  0.843922828361432      -0.398603229031376        123.414016702561     
   1.24609077814646        1.59156021608812       0.211244295810339     
  0.421754117404986       -1.97569246493869        464.120312286487     
  0.940535203522004      -0.455624615183303        179.625471980338     
   1.16295186204879        1.00411553065714        12.1607335656385     
  0.388434019468613       -1.60126860149643        307.376831163761     
  -1.05508363999314        1.06640091064061        4.44239816569247     
  -1.24875260631412       0.435219652078705        131.431227703024     
  -1.46444361799833       -1.23277314164950        1146.73511327125     
  0.103745904527831        1.20928921635956        144.449729546956     
  -1.10594135505426       -1.39980476424124        692.401224020964     
  0.504714312856918       0.901174743567543        42.0335433250021     
  -1.35814686641355        1.73857162860668        6.68427183259240     
  0.801188707048190       -1.07854639260827        296.034255653512     
  0.326690981991768       0.382229819282662        8.04352550291953     
  -1.39626871240383       0.289244439905929        281.408977376741     
 -0.279089044846096       -1.38625572661508        216.008543163739     
   1.65576679286048        1.20000278299531        238.071027642176     
  -1.29850474065577      -0.530325412734363        496.543739983661     
  0.641510847763304       0.469643138957345       0.466156482002762     
  0.559841272410377        1.17009907536788        73.5832579673282     
  -1.22101701892097       0.786457440172150        54.5543916124727     
   1.17612331451601       5.464155846908181E-003   189.864825636365     
  -1.01759033355614       -1.14103189926742        477.795466401492     
   1.96995094953168       0.844807947340990        922.608954933356     
 -0.835917938257366        1.43526256760465        57.6143747191846     
   1.93331858202536      -0.778667476314206        2040.64733526453     
 -0.149706381500657      -0.926869805658697        91.4354195448157     
 -0.359428674527962       -1.80922064836045        377.591231979995     
 -0.520786206822446        1.49726530276061        152.631922552252     
  -1.83087728945357       -1.62999541925132        2490.15295021664     
  -1.78361146511642      -9.637013242238890E-002   1082.04088379466     
  0.460426401297346       0.154512630498261       0.621532874961109     
 -0.789045898903757      -0.694005460091847        176.543949119386     
  -1.95243812478262       0.766262791574906        936.377317680566     
 -0.429089923945254       -1.54339938901073        300.473987202963     
   1.96503757720626      -0.127271535439598        1591.85956512788     
 -0.880615443821839      -0.823688490750442        259.271839204907     
  -1.87781009730660      -0.495822807102370        1625.92501758156     
  -1.14819856181691      -0.988575450989154        536.809845662031     
  -1.37628186766572      -2.577271027274941E-002   374.257720067449     
  -1.52049488442567       0.120501211757591        486.577816470024     
  0.676065263012331        1.14172861734747        46.9814646949628     
  0.918951801493993       0.330581706774962        26.4149346531366     
  -1.13127074759767      -0.951422163302345        502.365725743632     
  -1.96974493810753        1.53930444015586        556.655858616585     
 -0.129128944836268       0.188962365544856        4.24325046471326     
  -1.59842013062732        1.47826399058117        122.676398932271     
  0.482635543081250       -1.87054539199986        442.731511700643     
  0.815877918370055        1.40771880223401        55.0995057688912     
   1.80368550185066       -1.29451831761360        2068.89412806660     
  0.221618932446793        1.90086487870732        343.503656481677     
  0.993672462948604       0.965787446625628       4.668531176748320E-002
   1.53858096155086       -1.90351433055060        1824.21695781082     
  0.182129206326570       -1.00657493373032        108.776083245396     
  -1.54984910406999       0.601959037988210        330.528085652866     
 -3.908292397238067E-002   1.85837590113340        345.868301106269     
  0.873754817425158       -1.66554261821023        590.015228039465     
   1.68576608607657       -1.53814301213077        1918.86674614043     
 -0.978246253703130      -0.363498008169747        178.275907384111     
   1.11903081790425       -1.24995459050992        626.106926531385     
 -0.174234318899519       0.257472124175752        6.53692704102774     
  0.712504567361457       6.681547459826609E-002   19.5172863971059     
   1.47647740707196       -1.33766191975117        1237.61139132199     
 -0.202997944314129      -0.740373788739546        62.5342391570207     
   1.70973314162085        1.08735098190859        337.533262243293     
 -0.545623116201468      -0.647772250167327        91.7815953885452     
  -1.73809566036674        1.68568457523185        185.797626846243     
   1.62776294931766        1.80447273467573        71.8201611458826     
   1.10959912746610        1.91065629136678        46.1767078591226     
  -1.50181579949178       0.369754652393746        361.844039032144     
   1.33300298833634       0.878656538647617        80.7944776873890     
  0.575118102862651        1.04609391293273        51.3506662598023     
 -5.312353922991786E-003  -1.44464348697130        209.718287340328     
   1.86030579304844      -0.306291628367121        1419.79107968063     
   1.30450194461537      -0.851031541290324        651.749482510389     
 -6.024432430474280E-002  -1.69932818990413        291.130566043493     
 -0.587427277825601      -0.242475481966986        37.0409894989675     
   1.58302403496344        1.38633032120082        125.698119756271     
   1.21319991462794        1.64149470613416        2.92325000671739     
  -1.62689743729615        1.60915959157472        114.569370567483     
  -1.64690801976889       -1.93871386384739        2170.20472324917     
  0.264240003868261       0.555174286592505        24.0979513015973     
  0.379454941692443        1.34858592374393        145.491161083272     
  -1.27942090419624       -1.82782999932928        1205.64352566704     
   1.50568761744400       0.821506633634537        209.228350669942     
  -1.20592352031289       0.527640361576188        90.7269255905576     
 -0.323018112300678       -1.78050403656442        357.014345350517     
 -0.904344710261445        1.57247426077731        60.5739128805958     
 -0.726125492868791       -1.65410672227318        478.814815325848     
 -0.846120458342248        1.96266990864051        158.846736599415     
   1.36032689223485        1.24964309177180        36.2314465041388     
 -0.405769535686066      -0.210388640858338        16.0415048997072     
   1.26958166894723      -0.551505210171155        468.077891820393     
  -1.92714954373289       0.653459382830667        945.201164761762     
   1.54265665976742       0.310167870101575        428.627874288300     
 -0.233641425734143       -1.02387436058659        117.830045607296     
  0.608405037482746        1.97262928100391        256.945187223725     
