 variables= "x","y","fpcb"
 zone i=         131  datapacking=point
  0.000000000000000E+000  0.000000000000000E+000  0.000000000000000E+000
  -1.62881718186166      -0.102324122802845       0.000000000000000E+000
  -1.69831447599356       -1.62412736322767       0.000000000000000E+000
 -0.579031587635574       -1.83836475138019       0.000000000000000E+000
 -0.394580399453867       0.313547225237938       0.000000000000000E+000
  -1.11735375817319      -0.654533496751347       0.000000000000000E+000
 -0.708125042675420        1.88147430032470       0.000000000000000E+000
   1.32103371678016       -1.42021306548870       0.000000000000000E+000
 -0.500825871975270       -1.03244202357085       0.000000000000000E+000
  0.237890324978455        1.94538314583914       0.000000000000000E+000
   1.24559268414036        1.06216571188914       0.000000000000000E+000
  0.935784339650702       0.460341102500665       0.000000000000000E+000
   1.13197666599305       -1.36770094274753       0.000000000000000E+000
   1.10129100952359       -1.20928672327462       0.000000000000000E+000
   1.85601234544456      -0.970507670583008       0.000000000000000E+000
  -1.02341086901053      -0.879671377625907       0.000000000000000E+000
 -0.435941082273309        1.80590435169481       0.000000000000000E+000
   1.41303939883731      -0.165561047829559       0.000000000000000E+000
  -1.42850310963080      -0.599798044861507       0.000000000000000E+000
  -1.49298491956657        1.14845850913152       0.000000000000000E+000
 -0.780749245883385       -1.33875305409506       0.000000000000000E+000
   1.48940919597365      -0.727923669282352       0.000000000000000E+000
   1.96600559168682       0.779256801611741       0.000000000000000E+000
  0.701781031077437      -0.557652868156868       0.000000000000000E+000
  -1.22727937071788        1.63511512293508       0.000000000000000E+000
  0.718669788059278       -1.97890745473596       0.000000000000000E+000
 -0.950459872986265      -0.993774934595810       0.000000000000000E+000
  -1.76839824716840      -0.421127252655689       0.000000000000000E+000
   1.18714840621063       3.792875714625765E-002  0.000000000000000E+000
  0.861278459580839       9.457557572392616E-002  0.000000000000000E+000
   1.36966561415604       0.127121055535518       0.000000000000000E+000
  -1.31246561786745       -1.88863333704855       0.000000000000000E+000
  -1.90734940797104       0.915076761718578       0.000000000000000E+000
  -1.67646160042797       0.214218186306379       0.000000000000000E+000
  0.198431241516357        1.61696566222454       0.000000000000000E+000
  0.774334207728307      -0.177198949197183       0.000000000000000E+000
   1.92968580147547      -0.594952878634473       0.000000000000000E+000
  -1.81653610952472      -0.716542659554467       0.000000000000000E+000
  0.592111035012541       0.517902548352513       0.000000000000000E+000
 -2.342230632318443E-002 -0.283625552015744       0.000000000000000E+000
 -0.223587850092286        1.34962208626807       0.000000000000000E+000
  -1.56618733594345       0.686190185981148       0.000000000000000E+000
 -0.742616264644939       -1.09467395948750       0.000000000000000E+000
  -1.05995682920298       -1.69668747045572       0.000000000000000E+000
  -1.96160396563546       -1.96677393931073       0.000000000000000E+000
  -1.28853745105518       -1.24898730610095       0.000000000000000E+000
  0.619762413796732       -1.40904293545851       0.000000000000000E+000
   1.78200320708620        1.91004024702014       0.000000000000000E+000
   1.15080228435355      -0.304713369148639       0.000000000000000E+000
 -0.817151902888246      -0.523702137310012       0.000000000000000E+000
   1.57834985663374       0.703063736256892       0.000000000000000E+000
  0.303139685082688      -0.493280899400902       0.000000000000000E+000
   1.61677879937389        1.48899248067822       0.000000000000000E+000
  0.132578799099335       -1.12933143244706       0.000000000000000E+000
  -1.51911588108915       0.761729379950873       0.000000000000000E+000
 -0.605040925951529      -0.240265352046334       0.000000000000000E+000
  0.634409459609873       -1.92603136762046       0.000000000000000E+000
  0.962535762235472        1.70988838385197       0.000000000000000E+000
  -1.83701662688965       -1.53952037274224       0.000000000000000E+000
   1.90277324888092       0.609339598188137       0.000000000000000E+000
 -0.364815196555738       0.651542790898712       0.000000000000000E+000
  0.215113640080130       0.372816428352023       0.000000000000000E+000
  0.666857238465097       0.246322018705803       0.000000000000000E+000
 -0.191461810213640      -0.340640756517634       0.000000000000000E+000
 -0.555132804050541       0.408057125836468       0.000000000000000E+000
 -0.468182706961592       -1.50907688277839       0.000000000000000E+000
 -0.685687196660832        1.03643419912629       0.000000000000000E+000
  0.907194119518192       -1.81072061586846       0.000000000000000E+000
   1.01309346552116       -1.05620005610497       0.000000000000000E+000
 -0.235834891108947       -1.66121316052683       0.000000000000000E+000
 -0.318236221082040        1.39499118089740       0.000000000000000E+000
  -1.32899215122351       0.975555973545492       0.000000000000000E+000
   1.46097548162817       -1.78495108202501       0.000000000000000E+000
   1.33247698599093      -3.924780688511187E-002  0.000000000000000E+000
   1.04757378230051      -4.302526002075924E-003  0.000000000000000E+000
 -0.328204212188917      -0.801104125485252       0.000000000000000E+000
  0.268752326097815       0.148306487971541       0.000000000000000E+000
  -1.15599114371665       -1.55026123279370       0.000000000000000E+000
  -1.20116769549240       0.881597860671212       0.000000000000000E+000
   1.56232812314757       0.343488585952702       0.000000000000000E+000
  0.491513850928510        1.77602290598988       0.000000000000000E+000
 -0.531287581025858       0.823087860075180       0.000000000000000E+000
  2.367150264904527E-002  -1.47683952088861       0.000000000000000E+000
 -0.107253443323538        1.56733273407282       0.000000000000000E+000
  -1.87579748446733      -0.922707881220404       0.000000000000000E+000
 -0.757329074216333        1.30054873323455       0.000000000000000E+000
   1.28017332911573      -5.911991364884361E-002  0.000000000000000E+000
  -1.10395677702933       -1.59785432969752       0.000000000000000E+000
  0.393868324686012       0.587471618120222       0.000000000000000E+000
  0.783100947540480       0.719455232261575       0.000000000000000E+000
  0.417319973307204       0.861187858615442       0.000000000000000E+000
  0.370073821446107        1.09884358559219       0.000000000000000E+000
 -0.963176068261954        1.57712016034464       0.000000000000000E+000
  -1.01620978711053       6.311506913793963E-002  0.000000000000000E+000
  -1.63636524320095       -1.14869710543143       0.000000000000000E+000
   1.63989189736635        1.84774903786734       0.000000000000000E+000
   1.81579079751775       0.553193940639541       0.000000000000000E+000
   1.53791863982813       -1.27859995986847       0.000000000000000E+000
  -1.97241275163494      -0.452426255778650       0.000000000000000E+000
 -0.142643421494004      -0.660905280743983       0.000000000000000E+000
  -1.37745067613236       -1.85032061652658       0.000000000000000E+000
  0.820074040262369       0.287352260753961       0.000000000000000E+000
 -0.893467896110174      -0.119408445340040       0.000000000000000E+000
  -1.91951006989949      -0.210717913324552       0.000000000000000E+000
  -1.75536310409700      -0.833679153190447       0.000000000000000E+000
  8.559188483138991E-002  0.171266226625406       0.000000000000000E+000
  0.558075544953132        1.00582204118415       0.000000000000000E+000
   1.74362297962605      -0.950480523663827       0.000000000000000E+000
 -0.852245530788649       -1.74906197123182       0.000000000000000E+000
  0.889516722888096        1.98873195547752       0.000000000000000E+000
 -0.915339166007547       0.953853590352148       0.000000000000000E+000
   1.05494226883619      -0.857516091752468       0.000000000000000E+000
 -0.638722783359580        1.25376348479697       0.000000000000000E+000
   1.23045490046134        1.74334701307811       0.000000000000000E+000
  0.163909021932342        1.19660759847484       0.000000000000000E+000
  -1.57801492450052        1.42970911207668       0.000000000000000E+000
  0.471102873259023       0.479825307411632       0.000000000000000E+000
   1.42904432466676        1.82852182577614       0.000000000000000E+000
 -6.730249317572889E-002  0.424341097123639       0.000000000000000E+000
  5.310407376488469E-002  -1.32055467804790       0.000000000000000E+000
   1.71100746755602      -0.760947226617608       0.000000000000000E+000
 -0.105126359307319        1.14164164285265       0.000000000000000E+000
   1.99624095549704       -1.19226733004487       0.000000000000000E+000
   1.69196807011292        1.37977784130708       0.000000000000000E+000
  -1.47432497682361        1.52923230179218       0.000000000000000E+000
  0.348358806291009        1.47141837430493       0.000000000000000E+000
 -3.771650038520313E-003  -1.68817693142678       0.000000000000000E+000
  0.518274759353627        1.22252725631335       0.000000000000000E+000
  -1.41718823306210        1.67208542271299       0.000000000000000E+000
 -0.270419331828107        1.27405068925546       0.000000000000000E+000
  -1.24305352900347      -0.404111478943587       0.000000000000000E+000
