 variables= "x","y","fpcb"
 zone i=         131  datapacking=point
  0.000000000000000E+000  0.000000000000000E+000  0.000000000000000E+000
   1.05703404378152       -1.74248658041883       0.000000000000000E+000
   1.84598299956003      -0.597911285992708       0.000000000000000E+000
  -1.70876453668338       -1.15605235684796       0.000000000000000E+000
  -1.03762909176441       -1.95516763314128       0.000000000000000E+000
  0.140373813558373       -1.47950942947948       0.000000000000000E+000
  -1.68388040728763       0.663644693908570       0.000000000000000E+000
   1.73955197820592       0.746599535320485       0.000000000000000E+000
  -1.42623815821013        1.71671076783868       0.000000000000000E+000
 -0.952663947532846      -6.655239660372358E-002  0.000000000000000E+000
 -0.766477626793133      -0.439259481095897       0.000000000000000E+000
 -0.632221593006754      -0.160816332891145       0.000000000000000E+000
  0.724968799769754       -1.31338933790698       0.000000000000000E+000
   1.43611392002684       0.582955062496365       0.000000000000000E+000
 -0.454720140263623      -0.686478348022088       0.000000000000000E+000
 -9.971800493136596E-002   1.83932082378702       0.000000000000000E+000
  0.986056010369686      -0.886059629675044       0.000000000000000E+000
  -1.89098484022890      -0.340073798017854       0.000000000000000E+000
  4.985135697166188E-002  -1.17757518464616       0.000000000000000E+000
   1.02732914539934       3.585641008748963E-002  0.000000000000000E+000
  0.122473448123258        1.78372252664000       0.000000000000000E+000
 -0.306314630470671      -0.273204660377402       0.000000000000000E+000
  4.481485242689498E-002  0.707288319139599       0.000000000000000E+000
 -0.659370654812823        1.28790956820357       0.000000000000000E+000
   1.89633588313056       0.491532663146872       0.000000000000000E+000
  0.297340463466017      -0.184576275859347       0.000000000000000E+000
 -0.614097695778568       0.208211033587732       0.000000000000000E+000
 -0.712492023841413      -0.566624131212421       0.000000000000000E+000
 -0.502299659963042       0.931432845255857       0.000000000000000E+000
  -1.81450713491186       8.801342140768131E-002  0.000000000000000E+000
  0.250339263561280        1.31790948712625       0.000000000000000E+000
   1.77261338038143       -1.49830328637035       0.000000000000000E+000
   1.41232072690897      -0.761959968981000       0.000000000000000E+000
  0.843922828361432      -0.398603229031376       0.000000000000000E+000
   1.24609077814646        1.59156021608812       0.000000000000000E+000
  0.421754117404986       -1.97569246493869       0.000000000000000E+000
  0.940535203522004      -0.455624615183303       0.000000000000000E+000
   1.16295186204879        1.00411553065714       0.000000000000000E+000
  0.388434019468613       -1.60126860149643       0.000000000000000E+000
  -1.05508363999314        1.06640091064061       0.000000000000000E+000
  -1.24875260631412       0.435219652078705       0.000000000000000E+000
  -1.46444361799833       -1.23277314164950       0.000000000000000E+000
  0.103745904527831        1.20928921635956       0.000000000000000E+000
  -1.10594135505426       -1.39980476424124       0.000000000000000E+000
  0.504714312856918       0.901174743567543       0.000000000000000E+000
  -1.35814686641355        1.73857162860668       0.000000000000000E+000
  0.801188707048190       -1.07854639260827       0.000000000000000E+000
  0.326690981991768       0.382229819282662       0.000000000000000E+000
  -1.39626871240383       0.289244439905929       0.000000000000000E+000
 -0.279089044846096       -1.38625572661508       0.000000000000000E+000
   1.65576679286048        1.20000278299531       0.000000000000000E+000
  -1.29850474065577      -0.530325412734363       0.000000000000000E+000
  0.641510847763304       0.469643138957345       0.000000000000000E+000
  0.559841272410377        1.17009907536788       0.000000000000000E+000
  -1.22101701892097       0.786457440172150       0.000000000000000E+000
   1.17612331451601       5.464155846908181E-003  0.000000000000000E+000
  -1.01759033355614       -1.14103189926742       0.000000000000000E+000
   1.96995094953168       0.844807947340990       0.000000000000000E+000
 -0.835917938257366        1.43526256760465       0.000000000000000E+000
   1.93331858202536      -0.778667476314206       0.000000000000000E+000
 -0.149706381500657      -0.926869805658697       0.000000000000000E+000
 -0.359428674527962       -1.80922064836045       0.000000000000000E+000
 -0.520786206822446        1.49726530276061       0.000000000000000E+000
  -1.83087728945357       -1.62999541925132       0.000000000000000E+000
  -1.78361146511642      -9.637013242238890E-002  0.000000000000000E+000
  0.460426401297346       0.154512630498261       0.000000000000000E+000
 -0.789045898903757      -0.694005460091847       0.000000000000000E+000
  -1.95243812478262       0.766262791574906       0.000000000000000E+000
 -0.429089923945254       -1.54339938901073       0.000000000000000E+000
   1.96503757720626      -0.127271535439598       0.000000000000000E+000
 -0.880615443821839      -0.823688490750442       0.000000000000000E+000
  -1.87781009730660      -0.495822807102370       0.000000000000000E+000
  -1.14819856181691      -0.988575450989154       0.000000000000000E+000
  -1.37628186766572      -2.577271027274941E-002  0.000000000000000E+000
  -1.52049488442567       0.120501211757591       0.000000000000000E+000
  0.676065263012331        1.14172861734747       0.000000000000000E+000
  0.918951801493993       0.330581706774962       0.000000000000000E+000
  -1.13127074759767      -0.951422163302345       0.000000000000000E+000
  -1.96974493810753        1.53930444015586       0.000000000000000E+000
 -0.129128944836268       0.188962365544856       0.000000000000000E+000
  -1.59842013062732        1.47826399058117       0.000000000000000E+000
  0.482635543081250       -1.87054539199986       0.000000000000000E+000
  0.815877918370055        1.40771880223401       0.000000000000000E+000
   1.80368550185066       -1.29451831761360       0.000000000000000E+000
  0.221618932446793        1.90086487870732       0.000000000000000E+000
  0.993672462948604       0.965787446625628       0.000000000000000E+000
   1.53858096155086       -1.90351433055060       0.000000000000000E+000
  0.182129206326570       -1.00657493373032       0.000000000000000E+000
  -1.54984910406999       0.601959037988210       0.000000000000000E+000
 -3.908292397238067E-002   1.85837590113340       0.000000000000000E+000
  0.873754817425158       -1.66554261821023       0.000000000000000E+000
   1.68576608607657       -1.53814301213077       0.000000000000000E+000
 -0.978246253703130      -0.363498008169747       0.000000000000000E+000
   1.11903081790425       -1.24995459050992       0.000000000000000E+000
 -0.174234318899519       0.257472124175752       0.000000000000000E+000
  0.712504567361457       6.681547459826609E-002  0.000000000000000E+000
   1.47647740707196       -1.33766191975117       0.000000000000000E+000
 -0.202997944314129      -0.740373788739546       0.000000000000000E+000
   1.70973314162085        1.08735098190859       0.000000000000000E+000
 -0.545623116201468      -0.647772250167327       0.000000000000000E+000
  -1.73809566036674        1.68568457523185       0.000000000000000E+000
   1.62776294931766        1.80447273467573       0.000000000000000E+000
   1.10959912746610        1.91065629136678       0.000000000000000E+000
  -1.50181579949178       0.369754652393746       0.000000000000000E+000
   1.33300298833634       0.878656538647617       0.000000000000000E+000
  0.575118102862651        1.04609391293273       0.000000000000000E+000
 -5.312353922991786E-003  -1.44464348697130       0.000000000000000E+000
   1.86030579304844      -0.306291628367121       0.000000000000000E+000
   1.30450194461537      -0.851031541290324       0.000000000000000E+000
 -6.024432430474280E-002  -1.69932818990413       0.000000000000000E+000
 -0.587427277825601      -0.242475481966986       0.000000000000000E+000
   1.58302403496344        1.38633032120082       0.000000000000000E+000
   1.21319991462794        1.64149470613416       0.000000000000000E+000
  -1.62689743729615        1.60915959157472       0.000000000000000E+000
  -1.64690801976889       -1.93871386384739       0.000000000000000E+000
  0.264240003868261       0.555174286592505       0.000000000000000E+000
  0.379454941692443        1.34858592374393       0.000000000000000E+000
  -1.27942090419624       -1.82782999932928       0.000000000000000E+000
   1.50568761744400       0.821506633634537       0.000000000000000E+000
  -1.20592352031289       0.527640361576188       0.000000000000000E+000
 -0.323018112300678       -1.78050403656442       0.000000000000000E+000
 -0.904344710261445        1.57247426077731       0.000000000000000E+000
 -0.726125492868791       -1.65410672227318       0.000000000000000E+000
 -0.846120458342248        1.96266990864051       0.000000000000000E+000
   1.36032689223485        1.24964309177180       0.000000000000000E+000
 -0.405769535686066      -0.210388640858338       0.000000000000000E+000
   1.26958166894723      -0.551505210171155       0.000000000000000E+000
  -1.92714954373289       0.653459382830667       0.000000000000000E+000
   1.54265665976742       0.310167870101575       0.000000000000000E+000
 -0.233641425734143       -1.02387436058659       0.000000000000000E+000
  0.608405037482746        1.97262928100391       0.000000000000000E+000
